    #         X           Y           Z       CHARGE      MIN DIST   ATOMIC VOL
 --------------------------------------------------------------------------------
    1   -0.000000    0.000000    0.215517   32.324231     0.287043   283.630000
    2   -0.000000    1.474485   -0.862068   19.087723     1.010627   256.924000
    3   -0.000000   -1.474485   -0.862068   19.091618     1.039231   260.246000
 --------------------------------------------------------------------------------
    VACUUM CHARGE:               0.0000
    VACUUM VOLUME:               0.0000
    NUMBER OF ELECTRONS:        70.5036
